{
  "Rows": {
    "RowColumnAttachedInfos": {
      "9": {
        "GridRowColumnDefinition": {
          "DesignLengthInPixel": 30.0
        }
      },
      "10": {
        "GridRowColumnDefinition": {
          "DesignLengthInPixel": 30.0
        }
      },
      "11": {
        "GridRowColumnDefinition": {
          "DesignLengthInPixel": 30.0
        }
      },
      "12": {
        "GridRowColumnDefinition": {
          "DesignLengthInPixel": 30.0
        }
      },
      "13": {
        "GridRowColumnDefinition": {
          "DesignLengthInPixel": 30.0
        }
      },
      "14": {
        "GridRowColumnDefinition": {
          "DesignLengthInPixel": 30.0
        }
      },
      "15": {
        "GridRowColumnDefinition": {
          "DesignLengthInPixel": 30.0
        }
      },
      "16": {
        "GridRowColumnDefinition": {
          "DesignLengthInPixel": 30.0
        }
      },
      "17": {
        "GridRowColumnDefinition": {
          "DesignLengthInPixel": 30.0
        }
      }
    },
    "Count": 30
  },
  "Cols": {
    "Count": 42
  },
  "Values": {
    "1,2": "列选项（隐藏显示列）",
    "5,2": "基础用法",
    "9,31": "S+P",
    "20,2": "类型",
    "20,11": "参考",
    "22,2": "默认",
    "23,12": "隐藏/显示列",
    "23,34": "列选项"
  },
  "Formulas": {
    "10,31": "N11&\":\"&AB11"
  },
  "AttachInfos": {
    "9,2": {
      "ListViewInfo": {
        "Name": "表格1",
        "TableName": "元素周期表",
        "RowIndex": 9,
        "ColumnIndex": 2,
        "RowCount": 9,
        "ColumnCount": 38,
        "TopCondition": null,
        "ListViewStyleName": "_RS_NewFashionGridStyle",
        "ShowColumnHeaderInDesigner": true,
        "IsRowHeaderVisible": true,
        "HideSelectionWhenLostFocus": true,
        "UseSimpleBar": true,
        "ColumnOperation": 2,
        "ShowGridLine": true
      }
    },
    "10,5": {
      "NameUsedInJavaScript": "Element",
      "BindingInfo": {
        "TableName": "元素周期表",
        "ColumnName": "Element",
        "GUID": "f9150c50-e2be-475e-b9b0-cddb135ccc2a"
      }
    },
    "10,13": {
      "NameUsedInJavaScript": "Symbol",
      "BindingInfo": {
        "TableName": "元素周期表",
        "ColumnName": "Symbol",
        "GUID": "0efd141e-6bc2-43e9-8cab-474da97288b5"
      }
    },
    "10,19": {
      "NameUsedInJavaScript": "Atomic_Weight",
      "BindingInfo": {
        "TableName": "元素周期表",
        "ColumnName": "Atomic_Weight",
        "GUID": "d2afad2c-098b-45d4-8d28-03caedd1ac52"
      }
    },
    "10,27": {
      "NameUsedInJavaScript": "Period",
      "BindingInfo": {
        "TableName": "元素周期表",
        "ColumnName": "Period",
        "GUID": "8fa56891-e97a-4eb2-bbc2-81075bcedb2b"
      }
    },
    "10,31": {
      "NameUsedInJavaScript": "S+P"
    },
    "23,34": {
      "CellType": {
        "$type": "Forguncy.ButtonCellType, ServerDesignerCommon",
        "CommandList": [
          {
            "$type": "Forguncy.Model.ColumnOptionsCommand, ServerDesignerCommon",
            "ListviewName": "表格1",
            "Columns": [
              {
                "BindingInfo": {
                  "TableName": "元素周期表",
                  "ColumnName": "ID",
                  "GUID": "02a6373b-ce40-41a6-9548-4f154d76f27f"
                },
                "Name": "ID",
                "HeaderCellStyleInfo": {
                  "FontFamily": "Body",
                  "FontSize": 14.667,
                  "HorizontalAlignment": 1
                },
                "TemplateCellStyleInfo": {
                  "FontFamily": "Body",
                  "FontSize": 14.667
                }
              },
              {
                "BindingInfo": {
                  "TableName": "元素周期表",
                  "ColumnName": "Atomic_Number",
                  "GUID": "43c17af8-c222-4e6c-8452-3bbc65c109c0"
                },
                "Name": "Atomic_Number",
                "HeaderCellStyleInfo": {
                  "FontFamily": "Body",
                  "FontSize": 14.667,
                  "HorizontalAlignment": 1
                },
                "TemplateCellStyleInfo": {
                  "FontFamily": "Body",
                  "FontSize": 14.667
                }
              },
              {
                "BindingInfo": {
                  "TableName": "元素周期表",
                  "ColumnName": "Group",
                  "GUID": "4e5a84cc-033d-4070-a84b-ca8129fa38f7"
                },
                "Name": "Group",
                "HeaderCellStyleInfo": {
                  "FontFamily": "Body",
                  "FontSize": 14.667,
                  "HorizontalAlignment": 1
                },
                "TemplateCellStyleInfo": {
                  "FontFamily": "Body",
                  "FontSize": 14.667
                }
              },
              {
                "BindingInfo": {
                  "TableName": "元素周期表",
                  "ColumnName": "Phase",
                  "GUID": "bd665b66-bd34-4fc8-9891-44e974ae0d1f"
                },
                "Name": "Phase",
                "HeaderCellStyleInfo": {
                  "FontFamily": "Body",
                  "FontSize": 14.667,
                  "HorizontalAlignment": 1
                },
                "TemplateCellStyleInfo": {
                  "FontFamily": "Body",
                  "FontSize": 14.667
                }
              },
              {
                "BindingInfo": {
                  "TableName": "元素周期表",
                  "ColumnName": "Most_Stable_Crystal",
                  "GUID": "0fb80cbd-a0f7-4f0d-a4ca-a4ddd65a38e7"
                },
                "Name": "Most_Stable_Crystal",
                "HeaderCellStyleInfo": {
                  "FontFamily": "Body",
                  "FontSize": 14.667,
                  "HorizontalAlignment": 1
                },
                "TemplateCellStyleInfo": {
                  "FontFamily": "Body",
                  "FontSize": 14.667
                }
              },
              {
                "BindingInfo": {
                  "TableName": "元素周期表",
                  "ColumnName": "Type",
                  "GUID": "28b98430-6efc-47f7-9fdd-59d2eca55ef0"
                },
                "Name": "Type",
                "HeaderCellStyleInfo": {
                  "FontFamily": "Body",
                  "FontSize": 14.667,
                  "HorizontalAlignment": 1
                },
                "TemplateCellStyleInfo": {
                  "FontFamily": "Body",
                  "FontSize": 14.667
                }
              },
              {
                "BindingInfo": {
                  "TableName": "元素周期表",
                  "ColumnName": "Ionic_Radius",
                  "GUID": "973e390d-2621-4376-92f5-76b32f48cea5"
                },
                "Name": "Ionic_Radius",
                "HeaderCellStyleInfo": {
                  "FontFamily": "Body",
                  "FontSize": 14.667,
                  "HorizontalAlignment": 1
                },
                "TemplateCellStyleInfo": {
                  "FontFamily": "Body",
                  "FontSize": 14.667
                }
              },
              {
                "BindingInfo": {
                  "TableName": "元素周期表",
                  "ColumnName": "Atomic_Radius",
                  "GUID": "cc632c89-f9c1-4a8f-b4c0-bb95cdc8b6dd"
                },
                "Name": "Atomic_Radius",
                "HeaderCellStyleInfo": {
                  "FontFamily": "Body",
                  "FontSize": 14.667,
                  "HorizontalAlignment": 1
                },
                "TemplateCellStyleInfo": {
                  "FontFamily": "Body",
                  "FontSize": 14.667
                }
              },
              {
                "BindingInfo": {
                  "TableName": "元素周期表",
                  "ColumnName": "Electronegativity",
                  "GUID": "28bd0f94-f502-49e5-b254-afd0664b0e9b"
                },
                "Name": "Electronegativity",
                "HeaderCellStyleInfo": {
                  "FontFamily": "Body",
                  "FontSize": 14.667,
                  "HorizontalAlignment": 1
                },
                "TemplateCellStyleInfo": {
                  "FontFamily": "Body",
                  "FontSize": 14.667
                }
              },
              {
                "BindingInfo": {
                  "TableName": "元素周期表",
                  "ColumnName": "First_Ionization_Potential",
                  "GUID": "2386b938-7522-420d-8c8e-4d1e5a77a65e"
                },
                "Name": "First_Ionization_Potential",
                "HeaderCellStyleInfo": {
                  "FontFamily": "Body",
                  "FontSize": 14.667,
                  "HorizontalAlignment": 1
                },
                "TemplateCellStyleInfo": {
                  "FontFamily": "Body",
                  "FontSize": 14.667
                }
              },
              {
                "BindingInfo": {
                  "TableName": "元素周期表",
                  "ColumnName": "Density",
                  "GUID": "38964a91-bc89-4303-9f20-7977d287bb1e"
                },
                "Name": "Density",
                "HeaderCellStyleInfo": {
                  "FontFamily": "Body",
                  "FontSize": 14.667,
                  "HorizontalAlignment": 1
                },
                "TemplateCellStyleInfo": {
                  "FontFamily": "Body",
                  "FontSize": 14.667
                }
              },
              {
                "BindingInfo": {
                  "TableName": "元素周期表",
                  "ColumnName": "Melting_Point__K_",
                  "GUID": "0925373b-fc9d-41d2-8ced-3483da1bd620"
                },
                "Name": "Melting_Point__K_",
                "HeaderCellStyleInfo": {
                  "FontFamily": "Body",
                  "FontSize": 14.667,
                  "HorizontalAlignment": 1
                },
                "TemplateCellStyleInfo": {
                  "FontFamily": "Body",
                  "FontSize": 14.667
                }
              },
              {
                "BindingInfo": {
                  "TableName": "元素周期表",
                  "ColumnName": "Boiling_Point__K_",
                  "GUID": "5b4869a9-7b45-4e8c-aae9-3a6caca95fae"
                },
                "Name": "Boiling_Point__K_",
                "HeaderCellStyleInfo": {
                  "FontFamily": "Body",
                  "FontSize": 14.667,
                  "HorizontalAlignment": 1
                },
                "TemplateCellStyleInfo": {
                  "FontFamily": "Body",
                  "FontSize": 14.667
                }
              },
              {
                "BindingInfo": {
                  "TableName": "元素周期表",
                  "ColumnName": "Isotopes",
                  "GUID": "57f009c5-ef94-4c10-b803-1bbba6a88eb3"
                },
                "Name": "Isotopes",
                "HeaderCellStyleInfo": {
                  "FontFamily": "Body",
                  "FontSize": 14.667,
                  "HorizontalAlignment": 1
                },
                "TemplateCellStyleInfo": {
                  "FontFamily": "Body",
                  "FontSize": 14.667
                }
              },
              {
                "BindingInfo": {
                  "TableName": "元素周期表",
                  "ColumnName": "Discoverer",
                  "GUID": "2b002e08-5e95-4b93-ac8a-d7f830012934"
                },
                "Name": "Discoverer",
                "HeaderCellStyleInfo": {
                  "FontFamily": "Body",
                  "FontSize": 14.667,
                  "HorizontalAlignment": 1
                },
                "TemplateCellStyleInfo": {
                  "FontFamily": "Body",
                  "FontSize": 14.667
                }
              },
              {
                "BindingInfo": {
                  "TableName": "元素周期表",
                  "ColumnName": "Year_of_Discovery",
                  "GUID": "170a1c2d-fb30-45ff-a1ca-ad3af7c44465"
                },
                "Name": "Year_of_Discovery",
                "HeaderCellStyleInfo": {
                  "FontFamily": "Body",
                  "FontSize": 14.667,
                  "HorizontalAlignment": 1
                },
                "TemplateCellStyleInfo": {
                  "FontFamily": "Body",
                  "FontSize": 14.667
                }
              },
              {
                "BindingInfo": {
                  "TableName": "元素周期表",
                  "ColumnName": "Specific_Heat_Capacity",
                  "GUID": "5d975065-79df-4a27-9d8d-fac5c66f3efa"
                },
                "Name": "Specific_Heat_Capacity",
                "HeaderCellStyleInfo": {
                  "FontFamily": "Body",
                  "FontSize": 14.667,
                  "HorizontalAlignment": 1
                },
                "TemplateCellStyleInfo": {
                  "FontFamily": "Body",
                  "FontSize": 14.667
                }
              },
              {
                "BindingInfo": {
                  "TableName": "元素周期表",
                  "ColumnName": "Electron_Configuration",
                  "GUID": "888a53e6-ffab-45c7-ad27-ba4e4455eeea"
                },
                "Name": "Electron_Configuration",
                "HeaderCellStyleInfo": {
                  "FontFamily": "Body",
                  "FontSize": 14.667,
                  "HorizontalAlignment": 1
                },
                "TemplateCellStyleInfo": {
                  "FontFamily": "Body",
                  "FontSize": 14.667
                }
              },
              {
                "BindingInfo": {
                  "TableName": "元素周期表",
                  "ColumnName": "Display_Row",
                  "GUID": "7a4dd53a-1a85-48db-ae8c-4883e4156dfc"
                },
                "Name": "Display_Row",
                "HeaderCellStyleInfo": {
                  "FontFamily": "Body",
                  "FontSize": 14.667,
                  "HorizontalAlignment": 1
                },
                "TemplateCellStyleInfo": {
                  "FontFamily": "Body",
                  "FontSize": 14.667
                }
              },
              {
                "BindingInfo": {
                  "TableName": "元素周期表",
                  "ColumnName": "Display_Column",
                  "GUID": "bcba3e40-7651-46c6-b08b-9a411c41f53d"
                },
                "Name": "Display_Column",
                "HeaderCellStyleInfo": {
                  "FontFamily": "Body",
                  "FontSize": 14.667,
                  "HorizontalAlignment": 1
                },
                "TemplateCellStyleInfo": {
                  "FontFamily": "Body",
                  "FontSize": 14.667
                }
              }
            ],
            "ID": "c545f701782b46a5a870ea28eb4ee8d7"
          }
        ],
        "Text": "列选项",
        "TemplateKey": "_RS_Main2",
        "Icon": {
          "Name": "Application/088_filter_2.svg",
          "BuiltIn": true,
          "Color": "Background 1"
        }
      }
    }
  },
  "StyleDatas": {
    "Styles": [
      {
        "FontFamily": 0,
        "FontSize": 26.666666666666664,
        "Formatter": 1
      },
      {
        "FontFamily": 0
      },
      {
        "FontFamily": 0,
        "FontSize": 18.666666666666664,
        "FontWeight": 2,
        "Formatter": 1
      },
      {
        "FontFamily": 0,
        "Formatter": 1
      },
      {
        "FontFamily": 0,
        "TextIndent": 5,
        "HorizontalAlignment": 3
      },
      {
        "Background": 4,
        "FontFamily": 0,
        "HorizontalAlignment": 5,
        "BorderBottom": null,
        "BorderTop": 0,
        "BorderLeft": 0,
        "BorderRight": 0
      },
      {
        "FontFamily": 0,
        "BorderBottom": null,
        "BorderTop": 0,
        "BorderLeft": 0,
        "BorderRight": 0
      },
      {
        "Background": 4,
        "FontFamily": 0,
        "HorizontalAlignment": 5,
        "BorderTop": 0,
        "BorderLeft": 0
      },
      {
        "FontFamily": 0,
        "BorderTop": 0
      },
      {
        "FontFamily": 0,
        "BorderTop": 0,
        "BorderRight": 0
      },
      {
        "Background": 7,
        "FontFamily": 0,
        "BorderTop": 0,
        "BorderLeft": 0
      },
      {
        "FontFamily": 0,
        "BorderTop": null,
        "BorderLeft": 0,
        "BorderRight": 0
      },
      {
        "FontFamily": 0,
        "BorderLeft": 0
      },
      {
        "FontFamily": 0,
        "BorderRight": 0
      },
      {
        "FontFamily": 0,
        "Formatter": 1,
        "HorizontalAlignment": 5,
        "BorderTop": 0,
        "BorderLeft": 0
      },
      {
        "FontFamily": 0,
        "BorderBottom": 0,
        "BorderLeft": 0
      },
      {
        "FontFamily": 0,
        "BorderBottom": 0
      },
      {
        "FontFamily": 0,
        "BorderBottom": 0,
        "BorderRight": 0
      }
    ],
    "Types": {
      "Strs": [
        "Body",
        "[AUTO]General",
        "Bold",
        "Left",
        "Background 1 -5",
        "Center",
        "Background 1 -15",
        "#FFF2F2F2"
      ],
      "Borders": [
        {
          "Color": 6
        }
      ]
    },
    "CellStyles": {
      "1,2": 0,
      "1,3": 1,
      "1,4": 1,
      "1,5": 1,
      "1,6": 1,
      "1,7": 1,
      "1,8": 1,
      "1,9": 1,
      "1,10": 1,
      "1,11": 1,
      "1,12": 1,
      "1,13": 1,
      "1,14": 1,
      "1,15": 1,
      "2,2": 1,
      "2,3": 1,
      "2,4": 1,
      "2,5": 1,
      "2,6": 1,
      "2,7": 1,
      "2,8": 1,
      "2,9": 1,
      "2,10": 1,
      "2,11": 1,
      "2,12": 1,
      "2,13": 1,
      "2,14": 1,
      "2,15": 1,
      "4,2": 1,
      "4,3": 1,
      "4,4": 1,
      "4,5": 1,
      "4,6": 1,
      "4,7": 1,
      "4,8": 1,
      "4,9": 1,
      "4,10": 1,
      "4,11": 1,
      "5,2": 2,
      "5,3": 1,
      "5,4": 1,
      "5,5": 1,
      "5,6": 1,
      "5,7": 1,
      "5,8": 1,
      "5,9": 1,
      "5,10": 1,
      "5,11": 1,
      "5,12": 1,
      "5,13": 1,
      "5,14": 1,
      "5,15": 1,
      "5,16": 1,
      "5,17": 1,
      "5,18": 1,
      "5,19": 1,
      "5,20": 1,
      "5,21": 1,
      "5,22": 1,
      "5,23": 1,
      "5,24": 1,
      "5,25": 1,
      "5,26": 1,
      "5,27": 1,
      "5,28": 1,
      "5,29": 1,
      "5,30": 1,
      "5,31": 1,
      "5,32": 1,
      "5,33": 1,
      "5,34": 1,
      "5,35": 1,
      "5,36": 1,
      "5,37": 1,
      "5,38": 1,
      "5,39": 1,
      "6,2": 1,
      "6,3": 1,
      "6,4": 1,
      "6,5": 1,
      "6,6": 1,
      "6,7": 1,
      "6,8": 1,
      "6,9": 1,
      "6,10": 1,
      "6,11": 1,
      "6,12": 1,
      "6,13": 1,
      "6,14": 1,
      "6,15": 1,
      "6,16": 1,
      "6,17": 1,
      "6,18": 1,
      "6,19": 1,
      "6,20": 1,
      "6,21": 1,
      "6,22": 1,
      "6,23": 1,
      "6,24": 1,
      "6,25": 1,
      "6,26": 1,
      "6,27": 1,
      "6,28": 1,
      "6,29": 1,
      "6,30": 1,
      "6,31": 1,
      "6,32": 1,
      "6,33": 1,
      "6,34": 1,
      "6,35": 1,
      "6,36": 1,
      "6,37": 1,
      "6,38": 1,
      "6,39": 1,
      "7,2": 1,
      "7,3": 1,
      "7,4": 1,
      "7,5": 1,
      "7,6": 1,
      "7,7": 1,
      "7,8": 1,
      "7,9": 1,
      "7,10": 1,
      "7,11": 1,
      "7,12": 1,
      "7,13": 1,
      "7,14": 1,
      "7,15": 1,
      "7,16": 1,
      "7,17": 1,
      "7,18": 1,
      "7,19": 1,
      "7,20": 1,
      "7,21": 1,
      "7,22": 1,
      "7,23": 1,
      "7,24": 1,
      "7,25": 1,
      "7,26": 1,
      "7,27": 1,
      "7,28": 1,
      "7,29": 1,
      "7,30": 1,
      "7,31": 1,
      "7,32": 1,
      "7,33": 1,
      "7,34": 1,
      "7,35": 1,
      "7,36": 1,
      "7,37": 1,
      "7,38": 1,
      "7,39": 1,
      "8,2": 1,
      "8,3": 1,
      "8,4": 1,
      "8,5": 1,
      "8,6": 1,
      "8,7": 1,
      "8,8": 1,
      "8,9": 1,
      "8,10": 1,
      "8,11": 1,
      "8,12": 1,
      "8,13": 1,
      "8,14": 1,
      "8,15": 1,
      "8,16": 1,
      "8,17": 1,
      "8,18": 1,
      "8,19": 1,
      "8,20": 1,
      "8,21": 1,
      "8,22": 1,
      "8,23": 1,
      "8,24": 1,
      "8,25": 1,
      "8,26": 1,
      "8,27": 1,
      "8,28": 1,
      "8,29": 1,
      "8,30": 1,
      "8,31": 1,
      "8,32": 1,
      "8,33": 1,
      "8,34": 1,
      "8,35": 1,
      "8,36": 1,
      "8,37": 1,
      "8,38": 1,
      "8,39": 1,
      "9,2": 1,
      "9,3": 1,
      "9,4": 1,
      "9,5": 1,
      "9,6": 1,
      "9,7": 1,
      "9,8": 1,
      "9,9": 1,
      "9,10": 1,
      "9,11": 1,
      "9,12": 1,
      "9,13": 1,
      "9,14": 1,
      "9,15": 1,
      "9,16": 1,
      "9,17": 1,
      "9,18": 1,
      "9,19": 1,
      "9,20": 1,
      "9,21": 1,
      "9,22": 1,
      "9,23": 1,
      "9,24": 1,
      "9,25": 1,
      "9,26": 1,
      "9,27": 1,
      "9,28": 1,
      "9,29": 1,
      "9,30": 1,
      "9,31": 3,
      "10,2": 1,
      "10,3": 1,
      "10,4": 1,
      "10,5": 4,
      "10,6": 1,
      "10,7": 1,
      "10,8": 1,
      "10,9": 1,
      "10,10": 1,
      "10,11": 1,
      "10,12": 1,
      "10,13": 4,
      "10,14": 1,
      "10,15": 1,
      "10,16": 1,
      "10,17": 1,
      "10,18": 1,
      "10,19": 4,
      "10,20": 1,
      "10,21": 1,
      "10,22": 1,
      "10,23": 1,
      "10,24": 1,
      "10,25": 1,
      "10,26": 1,
      "10,27": 4,
      "10,28": 1,
      "10,29": 1,
      "10,30": 1,
      "10,31": 4,
      "11,2": 1,
      "11,3": 1,
      "11,4": 1,
      "11,5": 1,
      "11,6": 1,
      "11,7": 1,
      "11,8": 1,
      "11,9": 1,
      "11,10": 1,
      "11,11": 1,
      "11,12": 1,
      "11,13": 1,
      "11,14": 1,
      "11,15": 1,
      "11,16": 1,
      "11,17": 1,
      "11,18": 1,
      "11,19": 1,
      "11,20": 1,
      "11,21": 1,
      "11,22": 1,
      "11,23": 1,
      "11,24": 1,
      "11,25": 1,
      "11,26": 1,
      "11,27": 1,
      "11,28": 1,
      "11,29": 1,
      "11,30": 1,
      "11,31": 1,
      "11,32": 1,
      "11,33": 1,
      "11,34": 1,
      "11,35": 1,
      "11,36": 1,
      "11,37": 1,
      "11,38": 1,
      "11,39": 1,
      "12,2": 1,
      "12,3": 1,
      "12,4": 1,
      "12,5": 1,
      "12,6": 1,
      "12,7": 1,
      "12,8": 1,
      "12,9": 1,
      "12,10": 1,
      "12,11": 1,
      "12,12": 1,
      "12,13": 1,
      "12,14": 1,
      "12,15": 1,
      "12,16": 1,
      "12,17": 1,
      "12,18": 1,
      "12,19": 1,
      "12,20": 1,
      "12,21": 1,
      "12,22": 1,
      "12,23": 1,
      "12,24": 1,
      "12,25": 1,
      "12,26": 1,
      "12,27": 1,
      "12,28": 1,
      "12,29": 1,
      "12,30": 1,
      "12,31": 1,
      "12,32": 1,
      "12,33": 1,
      "12,34": 1,
      "12,35": 1,
      "12,36": 1,
      "12,37": 1,
      "12,38": 1,
      "12,39": 1,
      "13,2": 1,
      "13,3": 1,
      "13,4": 1,
      "13,5": 1,
      "13,6": 1,
      "13,7": 1,
      "13,8": 1,
      "13,9": 1,
      "13,10": 1,
      "13,11": 1,
      "13,12": 1,
      "13,13": 1,
      "13,14": 1,
      "13,15": 1,
      "13,16": 1,
      "13,17": 1,
      "13,18": 1,
      "13,19": 1,
      "13,20": 1,
      "13,21": 1,
      "13,22": 1,
      "13,23": 1,
      "13,24": 1,
      "13,25": 1,
      "13,26": 1,
      "13,27": 1,
      "13,28": 1,
      "13,29": 1,
      "13,30": 1,
      "13,31": 1,
      "13,32": 1,
      "13,33": 1,
      "13,34": 1,
      "13,35": 1,
      "13,36": 1,
      "13,37": 1,
      "13,38": 1,
      "13,39": 1,
      "14,2": 1,
      "14,3": 1,
      "14,4": 1,
      "14,5": 1,
      "14,6": 1,
      "14,7": 1,
      "14,8": 1,
      "14,9": 1,
      "14,10": 1,
      "14,11": 1,
      "14,12": 1,
      "14,13": 1,
      "14,14": 1,
      "14,15": 1,
      "14,16": 1,
      "14,17": 1,
      "14,18": 1,
      "14,19": 1,
      "14,20": 1,
      "14,21": 1,
      "14,22": 1,
      "14,23": 1,
      "14,24": 1,
      "14,25": 1,
      "14,26": 1,
      "14,27": 1,
      "14,28": 1,
      "14,29": 1,
      "14,30": 1,
      "14,31": 1,
      "14,32": 1,
      "14,33": 1,
      "14,34": 1,
      "14,35": 1,
      "14,36": 1,
      "14,37": 1,
      "14,38": 1,
      "14,39": 1,
      "15,2": 1,
      "15,3": 1,
      "15,4": 1,
      "15,5": 1,
      "15,6": 1,
      "15,7": 1,
      "15,8": 1,
      "15,9": 1,
      "15,10": 1,
      "15,11": 1,
      "15,12": 1,
      "15,13": 1,
      "15,14": 1,
      "15,15": 1,
      "15,16": 1,
      "15,17": 1,
      "15,18": 1,
      "15,19": 1,
      "15,20": 1,
      "15,21": 1,
      "15,22": 1,
      "15,23": 1,
      "15,24": 1,
      "15,25": 1,
      "15,26": 1,
      "15,27": 1,
      "15,28": 1,
      "15,29": 1,
      "15,30": 1,
      "15,31": 1,
      "15,32": 1,
      "15,33": 1,
      "15,34": 1,
      "15,35": 1,
      "15,36": 1,
      "15,37": 1,
      "15,38": 1,
      "15,39": 1,
      "16,2": 1,
      "16,3": 1,
      "16,4": 1,
      "16,5": 1,
      "16,6": 1,
      "16,7": 1,
      "16,8": 1,
      "16,9": 1,
      "16,10": 1,
      "16,11": 1,
      "16,12": 1,
      "16,13": 1,
      "16,14": 1,
      "16,15": 1,
      "16,16": 1,
      "16,17": 1,
      "16,18": 1,
      "16,19": 1,
      "16,20": 1,
      "16,21": 1,
      "16,22": 1,
      "16,23": 1,
      "16,24": 1,
      "16,25": 1,
      "16,26": 1,
      "16,27": 1,
      "16,28": 1,
      "16,29": 1,
      "16,30": 1,
      "16,31": 1,
      "16,32": 1,
      "16,33": 1,
      "16,34": 1,
      "16,35": 1,
      "16,36": 1,
      "16,37": 1,
      "16,38": 1,
      "16,39": 1,
      "17,2": 1,
      "17,3": 1,
      "17,4": 1,
      "17,5": 1,
      "17,6": 1,
      "17,7": 1,
      "17,8": 1,
      "17,9": 1,
      "17,10": 1,
      "17,11": 1,
      "17,12": 1,
      "17,13": 1,
      "17,14": 1,
      "17,15": 1,
      "17,16": 1,
      "17,17": 1,
      "17,18": 1,
      "17,19": 1,
      "17,20": 1,
      "17,21": 1,
      "17,22": 1,
      "17,23": 1,
      "17,24": 1,
      "17,25": 1,
      "17,26": 1,
      "17,27": 1,
      "17,28": 1,
      "17,29": 1,
      "17,30": 1,
      "17,31": 1,
      "17,32": 1,
      "17,33": 1,
      "17,34": 1,
      "17,35": 1,
      "17,36": 1,
      "17,37": 1,
      "17,38": 1,
      "17,39": 1,
      "18,2": 1,
      "18,3": 1,
      "18,4": 1,
      "18,5": 1,
      "18,6": 1,
      "18,7": 1,
      "18,8": 1,
      "18,9": 1,
      "18,10": 1,
      "18,11": 1,
      "18,12": 1,
      "18,13": 1,
      "18,14": 1,
      "18,15": 1,
      "18,16": 1,
      "18,17": 1,
      "18,18": 1,
      "18,19": 1,
      "18,20": 1,
      "18,21": 1,
      "18,22": 1,
      "18,23": 1,
      "18,24": 1,
      "18,25": 1,
      "18,26": 1,
      "18,27": 1,
      "18,28": 1,
      "18,29": 1,
      "18,30": 1,
      "18,31": 1,
      "18,32": 1,
      "18,33": 1,
      "18,34": 1,
      "18,35": 1,
      "18,36": 1,
      "18,37": 1,
      "18,38": 1,
      "18,39": 1,
      "19,2": 1,
      "19,3": 1,
      "19,4": 1,
      "19,5": 1,
      "19,6": 1,
      "19,7": 1,
      "19,8": 1,
      "19,9": 1,
      "19,10": 1,
      "19,11": 1,
      "19,12": 1,
      "19,13": 1,
      "19,14": 1,
      "19,15": 1,
      "19,16": 1,
      "19,17": 1,
      "19,18": 1,
      "19,19": 1,
      "19,20": 1,
      "19,21": 1,
      "19,22": 1,
      "19,23": 1,
      "19,24": 1,
      "19,25": 1,
      "19,26": 1,
      "19,27": 1,
      "19,28": 1,
      "19,29": 1,
      "19,30": 1,
      "19,31": 1,
      "19,32": 1,
      "19,33": 1,
      "19,34": 1,
      "19,35": 1,
      "19,36": 1,
      "19,37": 1,
      "19,38": 1,
      "19,39": 1,
      "20,2": 5,
      "20,3": 6,
      "20,4": 6,
      "20,5": 6,
      "20,6": 6,
      "20,7": 6,
      "20,8": 6,
      "20,9": 6,
      "20,10": 6,
      "20,11": 7,
      "20,12": 8,
      "20,13": 8,
      "20,14": 8,
      "20,15": 8,
      "20,16": 8,
      "20,17": 8,
      "20,18": 8,
      "20,19": 8,
      "20,20": 8,
      "20,21": 8,
      "20,22": 8,
      "20,23": 8,
      "20,24": 8,
      "20,25": 8,
      "20,26": 8,
      "20,27": 8,
      "20,28": 8,
      "20,29": 8,
      "20,30": 8,
      "20,31": 8,
      "20,32": 9,
      "20,33": 10,
      "20,34": 8,
      "20,35": 8,
      "20,36": 8,
      "20,37": 8,
      "20,38": 8,
      "20,39": 9,
      "21,2": 11,
      "21,3": 11,
      "21,4": 11,
      "21,5": 11,
      "21,6": 11,
      "21,7": 11,
      "21,8": 11,
      "21,9": 11,
      "21,10": 11,
      "21,11": 12,
      "21,12": 1,
      "21,13": 1,
      "21,14": 1,
      "21,15": 1,
      "21,16": 1,
      "21,17": 1,
      "21,18": 1,
      "21,19": 1,
      "21,20": 1,
      "21,21": 1,
      "21,22": 1,
      "21,23": 1,
      "21,24": 1,
      "21,25": 1,
      "21,26": 1,
      "21,27": 1,
      "21,28": 1,
      "21,29": 1,
      "21,30": 1,
      "21,31": 1,
      "21,32": 13,
      "21,33": 12,
      "21,34": 1,
      "21,35": 1,
      "21,36": 1,
      "21,37": 1,
      "21,38": 1,
      "21,39": 13,
      "22,2": 14,
      "22,3": 8,
      "22,4": 8,
      "22,5": 8,
      "22,6": 8,
      "22,7": 8,
      "22,8": 8,
      "22,9": 8,
      "22,10": 9,
      "22,11": 8,
      "22,12": 8,
      "22,13": 8,
      "22,14": 8,
      "22,15": 8,
      "22,16": 8,
      "22,17": 8,
      "22,18": 8,
      "22,19": 8,
      "22,20": 8,
      "22,21": 8,
      "22,22": 8,
      "22,23": 8,
      "22,24": 8,
      "22,25": 8,
      "22,26": 8,
      "22,27": 8,
      "22,28": 8,
      "22,29": 8,
      "22,30": 8,
      "22,31": 8,
      "22,32": 9,
      "22,33": 8,
      "22,34": 8,
      "22,35": 8,
      "22,36": 8,
      "22,37": 8,
      "22,38": 8,
      "22,39": 9,
      "23,2": 12,
      "23,3": 1,
      "23,4": 1,
      "23,5": 1,
      "23,6": 1,
      "23,7": 1,
      "23,8": 1,
      "23,9": 1,
      "23,10": 13,
      "23,11": 1,
      "23,12": 1,
      "23,13": 1,
      "23,14": 1,
      "23,15": 1,
      "23,16": 1,
      "23,17": 1,
      "23,18": 1,
      "23,19": 1,
      "23,20": 1,
      "23,21": 1,
      "23,22": 1,
      "23,23": 1,
      "23,24": 1,
      "23,25": 1,
      "23,26": 1,
      "23,27": 1,
      "23,28": 1,
      "23,29": 1,
      "23,30": 1,
      "23,31": 1,
      "23,32": 13,
      "23,33": 1,
      "23,34": 1,
      "23,35": 1,
      "23,36": 1,
      "23,37": 1,
      "23,38": 1,
      "23,39": 13,
      "24,2": 12,
      "24,3": 1,
      "24,4": 1,
      "24,5": 1,
      "24,6": 1,
      "24,7": 1,
      "24,8": 1,
      "24,9": 1,
      "24,10": 13,
      "24,11": 1,
      "24,12": 1,
      "24,13": 1,
      "24,14": 1,
      "24,15": 1,
      "24,16": 1,
      "24,17": 1,
      "24,18": 1,
      "24,19": 1,
      "24,20": 1,
      "24,21": 1,
      "24,22": 1,
      "24,23": 1,
      "24,24": 1,
      "24,25": 1,
      "24,26": 1,
      "24,27": 1,
      "24,28": 1,
      "24,29": 1,
      "24,30": 1,
      "24,31": 1,
      "24,32": 13,
      "24,33": 1,
      "24,34": 1,
      "24,35": 1,
      "24,36": 1,
      "24,37": 1,
      "24,38": 1,
      "24,39": 13,
      "25,2": 15,
      "25,3": 16,
      "25,4": 16,
      "25,5": 16,
      "25,6": 16,
      "25,7": 16,
      "25,8": 16,
      "25,9": 16,
      "25,10": 17,
      "25,11": 16,
      "25,12": 16,
      "25,13": 16,
      "25,14": 16,
      "25,15": 16,
      "25,16": 16,
      "25,17": 16,
      "25,18": 16,
      "25,19": 16,
      "25,20": 16,
      "25,21": 16,
      "25,22": 16,
      "25,23": 16,
      "25,24": 16,
      "25,25": 16,
      "25,26": 16,
      "25,27": 16,
      "25,28": 16,
      "25,29": 16,
      "25,30": 16,
      "25,31": 16,
      "25,32": 17,
      "25,33": 16,
      "25,34": 16,
      "25,35": 16,
      "25,36": 16,
      "25,37": 16,
      "25,38": 16,
      "25,39": 17
    },
    "SheetStyle": {
      "FontFamily": 0
    }
  },
  "Spans": [
    "1,2,2,14",
    "5,2,2,9",
    "22,2,4,9",
    "20,2,2,9",
    "23,34,2,5",
    "20,11,2,22",
    "20,33,2,7",
    "23,12,2,20",
    "10,2,1,3",
    "10,5,1,8",
    "10,13,1,6",
    "10,19,1,8",
    "10,27,1,4",
    "10,31,1,9",
    "11,2,7,38",
    "9,2,1,3",
    "9,5,1,8",
    "9,13,1,6",
    "9,19,1,8",
    "9,27,1,4",
    "9,31,1,9"
  ],
  "PageInfo": {
    "$type": "Forguncy.Model.Pages.NormalPage, ServerDesignerCommon",
    "MasterPageName": "LearnParentPage",
    "PermissionData": {
      "$type": "Forguncy.RbacPermission.Core.Impl.Page.PagePermissionData, Forguncy.RbacPermission.Core",
      "permissionResource": {
        "$type": "Forguncy.RbacPermission.Core.Impl.Page.PagePermissionResource, Forguncy.RbacPermission.Core"
      },
      "permissionBindings": [
        {
          "$type": "Forguncy.RbacPermission.Core.Impl.Page.PagePermissionBinding, Forguncy.RbacPermission.Core",
          "roleNames": [
            "FGC_Anonymous",
            "FGC_LoginUser",
            "Administrator"
          ]
        }
      ]
    },
    "RowBreakLines": [],
    "RepeatRangeSettings": []
  },
  "PrintInfo": {
    "PaperSize": {},
    "Orientation": 2,
    "Margin": {}
  }
}//KINy460gZbr9H9mSnNL+dVfOEyXgMSVImydZZAguTtl3w0nBvMWc9nzEhcqdpHFzFiJsvtn8snpkfmrhsInCst6ftwDoFrCSQBTsYtiXEOi9Na7ZZImPQ7bGhO/RO2LwAzz1bDLO37b+kp+6hmVZMJTZkkOZnq/vL2TUdh/vC2oy9FtCyleoqpVarpaTbBz7Ys7yyA1ZuQOhnLwMTTMerZwb4AoLKNnwKmtACNTFKyPla0+DKTlxfwcAQ+EMZQ1Dqp19mvhre/3UXgVBkAglEcNz/vJFmPgxImtIkCrWyg31eTcIWlatMGshZSGPAR+j4t/es8bXQ70V4SjdW5tyizQCdVUnwgkwtSnbt6l6nBwD83N4Ezcu3DPv4t04660DJ07dDjHtnBCr8dHme5RL4mUguMg6Bu17/rb511xhrZC8j/EYjQVc/A/MtQNw1lbAWclq2M74Rm22H6jXgn7TDGmcO2y1etUrXmxX2gCCjvGmg1wa3o4eaTLZwUPZg8PF7u6xLB30ZTc7EcT97byIYOjxjJOwWjvd7LeuwwaWoSJzBiei+uOhoaMpXhnfo4mGcI9ib69Av/xFozTAzNvauEABvoPwEKHOkTC0jGssRdOhU28wdpnQF9GVoxsVPNBRKAE+h/MbidI/xIAJWmhUUWO2hU3xwLlIi7YCSdJhhjJY8FlJPUoiTofBjvoyCORw0TLPJiwZVKrPDIwrcdlqsmXc9kb13rZ8SZY7cdIzh5iazCa+Y1ezemEfdcdsE2Jk8k1hOHjcNCwFPT5Vb/8YJzvRSFDiZXmvYIYfrD8W6MloXLpNS8++IIp7sw5ZaHH2q/RLVgME+jfcUQGeQpRM5sEQejQy+Dm+vktFhfTlUsyGCaBFzOHMqVvIWfgE/WFqSqbn0RcmijDoWIIkHy6Auw==|920