{
  "Name": "元素周期表",
  "PermissionData": {
    "$type": "Forguncy.RbacPermission.Core.Impl.Data.DataPermissionData, Forguncy.RbacPermission.Core",
    "permissionResource": {
      "$type": "Forguncy.RbacPermission.Core.Impl.Data.DataPermissionResource, Forguncy.RbacPermission.Core",
      "enabledTypes": 3,
      "detailTables": []
    },
    "permissionBindings": [
      {
        "$type": "Forguncy.RbacPermission.Core.Impl.Data.DataPermissionBinding, Forguncy.RbacPermission.Core",
        "config": {
          "$type": "Forguncy.RbacPermission.Core.Impl.Data.CreateRecordBindingConfig, Forguncy.RbacPermission.Core",
          "dataFilter": {
            "$type": "Forguncy.RbacPermission.Core.Impl.Data.CreateRecordFilter, Forguncy.RbacPermission.Core"
          }
        },
        "dataPermissionType": 1,
        "roleNames": [
          "Administrator"
        ]
      },
      {
        "$type": "Forguncy.RbacPermission.Core.Impl.Data.DataPermissionBinding, Forguncy.RbacPermission.Core",
        "config": {
          "$type": "Forguncy.RbacPermission.Core.Impl.Data.RowBindingConfig, Forguncy.RbacPermission.Core",
          "operationTypes": 13,
          "dataFilter": {
            "$type": "Forguncy.RbacPermission.Core.Impl.Data.RowFilter, Forguncy.RbacPermission.Core"
          }
        },
        "dataPermissionType": 2,
        "roleNames": [
          "Administrator"
        ]
      },
      {
        "$type": "Forguncy.RbacPermission.Core.Impl.Data.DataPermissionBinding, Forguncy.RbacPermission.Core",
        "config": {
          "$type": "Forguncy.RbacPermission.Core.Impl.Data.RowBindingConfig, Forguncy.RbacPermission.Core",
          "operationTypes": 1,
          "dataFilter": {
            "$type": "Forguncy.RbacPermission.Core.Impl.Data.RowFilter, Forguncy.RbacPermission.Core",
            "filterType": 1
          }
        },
        "dataPermissionType": 2,
        "roleNames": [
          "FGC_LoginUser"
        ]
      },
      {
        "$type": "Forguncy.RbacPermission.Core.Impl.Data.DataPermissionBinding, Forguncy.RbacPermission.Core",
        "config": {
          "$type": "Forguncy.RbacPermission.Core.Impl.Data.RowBindingConfig, Forguncy.RbacPermission.Core",
          "operationTypes": 1,
          "dataFilter": {
            "$type": "Forguncy.RbacPermission.Core.Impl.Data.RowFilter, Forguncy.RbacPermission.Core",
            "filterType": 2
          }
        },
        "dataPermissionType": 2,
        "roleNames": [
          "FGC_LoginUser"
        ]
      },
      {
        "$type": "Forguncy.RbacPermission.Core.Impl.Data.DataPermissionBinding, Forguncy.RbacPermission.Core",
        "config": {
          "$type": "Forguncy.RbacPermission.Core.Impl.Data.RowBindingConfig, Forguncy.RbacPermission.Core",
          "operationTypes": 1,
          "dataFilter": {
            "$type": "Forguncy.RbacPermission.Core.Impl.Data.RowFilter, Forguncy.RbacPermission.Core"
          }
        },
        "dataPermissionType": 2,
        "roleNames": [
          "FGC_LoginUser"
        ]
      },
      {
        "$type": "Forguncy.RbacPermission.Core.Impl.Data.DataPermissionBinding, Forguncy.RbacPermission.Core",
        "config": {
          "$type": "Forguncy.RbacPermission.Core.Impl.Data.RowBindingConfig, Forguncy.RbacPermission.Core",
          "operationTypes": 1,
          "dataFilter": {
            "$type": "Forguncy.RbacPermission.Core.Impl.Data.RowFilter, Forguncy.RbacPermission.Core"
          }
        },
        "dataPermissionType": 2,
        "roleNames": [
          "FGC_Anonymous"
        ]
      },
      {
        "$type": "Forguncy.RbacPermission.Core.Impl.Data.DataPermissionBinding, Forguncy.RbacPermission.Core",
        "config": {
          "$type": "Forguncy.RbacPermission.Core.Impl.Data.FieldBindingConfig, Forguncy.RbacPermission.Core",
          "fieldOperations": {
            "ID": 5,
            "Atomic_Number": 5,
            "Element": 5,
            "Symbol": 5,
            "Atomic_Weight": 5,
            "Period": 5,
            "Group": 5,
            "Phase": 5,
            "Most_Stable_Crystal": 5,
            "Type": 5,
            "Ionic_Radius": 5,
            "Atomic_Radius": 5,
            "Electronegativity": 5,
            "First_Ionization_Potential": 5,
            "Density": 5,
            "Melting_Point__K_": 5,
            "Boiling_Point__K_": 5,
            "Isotopes": 5,
            "Discoverer": 5,
            "Year_of_Discovery": 5,
            "Specific_Heat_Capacity": 5,
            "Electron_Configuration": 5,
            "Display_Row": 5,
            "Display_Column": 5
          },
          "subTableOperations": {},
          "dataFilter": {
            "$type": "Forguncy.RbacPermission.Core.Impl.Data.FieldFilter, Forguncy.RbacPermission.Core"
          }
        },
        "dataPermissionType": 4,
        "roleNames": [
          "Administrator"
        ]
      },
      {
        "$type": "Forguncy.RbacPermission.Core.Impl.Data.DataPermissionBinding, Forguncy.RbacPermission.Core",
        "config": {
          "$type": "Forguncy.RbacPermission.Core.Impl.Data.FieldBindingConfig, Forguncy.RbacPermission.Core",
          "fieldOperations": {
            "ID": 5,
            "Atomic_Number": 1,
            "Element": 1,
            "Symbol": 1,
            "Atomic_Weight": 1,
            "Period": 1,
            "Group": 1,
            "Phase": 1,
            "Most_Stable_Crystal": 1,
            "Type": 1,
            "Ionic_Radius": 1,
            "Atomic_Radius": 1,
            "Electronegativity": 1,
            "First_Ionization_Potential": 1,
            "Density": 1,
            "Melting_Point__K_": 1,
            "Boiling_Point__K_": 1,
            "Isotopes": 1,
            "Discoverer": 1,
            "Year_of_Discovery": 1,
            "Specific_Heat_Capacity": 1,
            "Electron_Configuration": 1,
            "Display_Row": 1,
            "Display_Column": 1
          },
          "subTableOperations": {},
          "dataFilter": {
            "$type": "Forguncy.RbacPermission.Core.Impl.Data.FieldFilter, Forguncy.RbacPermission.Core"
          }
        },
        "dataPermissionType": 4,
        "roleNames": [
          "FGC_LoginUser"
        ]
      },
      {
        "$type": "Forguncy.RbacPermission.Core.Impl.Data.DataPermissionBinding, Forguncy.RbacPermission.Core",
        "config": {
          "$type": "Forguncy.RbacPermission.Core.Impl.Data.FieldBindingConfig, Forguncy.RbacPermission.Core",
          "fieldOperations": {
            "ID": 5,
            "Atomic_Number": 1,
            "Element": 1,
            "Symbol": 1,
            "Atomic_Weight": 1,
            "Period": 1,
            "Group": 1,
            "Phase": 1,
            "Most_Stable_Crystal": 1,
            "Type": 1,
            "Ionic_Radius": 1,
            "Atomic_Radius": 1,
            "Electronegativity": 1,
            "First_Ionization_Potential": 1,
            "Density": 1,
            "Melting_Point__K_": 1,
            "Boiling_Point__K_": 1,
            "Isotopes": 1,
            "Discoverer": 1,
            "Year_of_Discovery": 1,
            "Specific_Heat_Capacity": 1,
            "Electron_Configuration": 1,
            "Display_Row": 1,
            "Display_Column": 1
          },
          "subTableOperations": {},
          "dataFilter": {
            "$type": "Forguncy.RbacPermission.Core.Impl.Data.FieldFilter, Forguncy.RbacPermission.Core"
          }
        },
        "dataPermissionType": 4,
        "roleNames": [
          "FGC_Anonymous"
        ]
      }
    ]
  },
  "Columns": [
    {
      "$type": "Forguncy.SaveLoad.BindingColumnSaveData, ServerDesignerCommon",
      "Required": true,
      "Unique": true,
      "AutoIncrement": true,
      "DatabaseColumnType": "System.Int64",
      "MaxLength": -1,
      "Name": "ID",
      "ColumnType": "System.Int64, System.Private.CoreLib, Version=6.0.0.0, Culture=neutral, PublicKeyToken=7cec85d7bea7798e"
    },
    {
      "$type": "Forguncy.SaveLoad.BindingColumnSaveData, ServerDesignerCommon",
      "DatabaseColumnType": "System.Double",
      "MaxLength": -1,
      "Name": "Atomic_Number",
      "ColumnType": "System.Double, System.Private.CoreLib, Version=6.0.0.0, Culture=neutral, PublicKeyToken=7cec85d7bea7798e"
    },
    {
      "$type": "Forguncy.SaveLoad.BindingColumnSaveData, ServerDesignerCommon",
      "DatabaseColumnType": "System.String",
      "MaxLength": -1,
      "Name": "Element",
      "ColumnType": "System.String, System.Private.CoreLib, Version=6.0.0.0, Culture=neutral, PublicKeyToken=7cec85d7bea7798e"
    },
    {
      "$type": "Forguncy.SaveLoad.BindingColumnSaveData, ServerDesignerCommon",
      "DatabaseColumnType": "System.String",
      "MaxLength": -1,
      "Name": "Symbol",
      "ColumnType": "System.String, System.Private.CoreLib, Version=6.0.0.0, Culture=neutral, PublicKeyToken=7cec85d7bea7798e"
    },
    {
      "$type": "Forguncy.SaveLoad.BindingColumnSaveData, ServerDesignerCommon",
      "DatabaseColumnType": "System.Double",
      "MaxLength": -1,
      "Name": "Atomic_Weight",
      "ColumnType": "System.Double, System.Private.CoreLib, Version=6.0.0.0, Culture=neutral, PublicKeyToken=7cec85d7bea7798e"
    },
    {
      "$type": "Forguncy.SaveLoad.BindingColumnSaveData, ServerDesignerCommon",
      "DatabaseColumnType": "System.Double",
      "MaxLength": -1,
      "Name": "Period",
      "ColumnType": "System.Double, System.Private.CoreLib, Version=6.0.0.0, Culture=neutral, PublicKeyToken=7cec85d7bea7798e"
    },
    {
      "$type": "Forguncy.SaveLoad.BindingColumnSaveData, ServerDesignerCommon",
      "DatabaseColumnType": "System.Double",
      "MaxLength": -1,
      "Name": "Group",
      "ColumnType": "System.Double, System.Private.CoreLib, Version=6.0.0.0, Culture=neutral, PublicKeyToken=7cec85d7bea7798e"
    },
    {
      "$type": "Forguncy.SaveLoad.BindingColumnSaveData, ServerDesignerCommon",
      "DatabaseColumnType": "System.String",
      "MaxLength": -1,
      "Name": "Phase",
      "ColumnType": "System.String, System.Private.CoreLib, Version=6.0.0.0, Culture=neutral, PublicKeyToken=7cec85d7bea7798e"
    },
    {
      "$type": "Forguncy.SaveLoad.BindingColumnSaveData, ServerDesignerCommon",
      "DatabaseColumnType": "System.String",
      "MaxLength": -1,
      "Name": "Most_Stable_Crystal",
      "ColumnType": "System.String, System.Private.CoreLib, Version=6.0.0.0, Culture=neutral, PublicKeyToken=7cec85d7bea7798e"
    },
    {
      "$type": "Forguncy.SaveLoad.BindingColumnSaveData, ServerDesignerCommon",
      "DatabaseColumnType": "System.String",
      "MaxLength": -1,
      "Name": "Type",
      "ColumnType": "System.String, System.Private.CoreLib, Version=6.0.0.0, Culture=neutral, PublicKeyToken=7cec85d7bea7798e"
    },
    {
      "$type": "Forguncy.SaveLoad.BindingColumnSaveData, ServerDesignerCommon",
      "DatabaseColumnType": "System.Double",
      "MaxLength": -1,
      "Name": "Ionic_Radius",
      "ColumnType": "System.Double, System.Private.CoreLib, Version=6.0.0.0, Culture=neutral, PublicKeyToken=7cec85d7bea7798e"
    },
    {
      "$type": "Forguncy.SaveLoad.BindingColumnSaveData, ServerDesignerCommon",
      "DatabaseColumnType": "System.Double",
      "MaxLength": -1,
      "Name": "Atomic_Radius",
      "ColumnType": "System.Double, System.Private.CoreLib, Version=6.0.0.0, Culture=neutral, PublicKeyToken=7cec85d7bea7798e"
    },
    {
      "$type": "Forguncy.SaveLoad.BindingColumnSaveData, ServerDesignerCommon",
      "DatabaseColumnType": "System.Double",
      "MaxLength": -1,
      "Name": "Electronegativity",
      "ColumnType": "System.Double, System.Private.CoreLib, Version=6.0.0.0, Culture=neutral, PublicKeyToken=7cec85d7bea7798e"
    },
    {
      "$type": "Forguncy.SaveLoad.BindingColumnSaveData, ServerDesignerCommon",
      "DatabaseColumnType": "System.Double",
      "MaxLength": -1,
      "Name": "First_Ionization_Potential",
      "ColumnType": "System.Double, System.Private.CoreLib, Version=6.0.0.0, Culture=neutral, PublicKeyToken=7cec85d7bea7798e"
    },
    {
      "$type": "Forguncy.SaveLoad.BindingColumnSaveData, ServerDesignerCommon",
      "DatabaseColumnType": "System.Double",
      "MaxLength": -1,
      "Name": "Density",
      "ColumnType": "System.Double, System.Private.CoreLib, Version=6.0.0.0, Culture=neutral, PublicKeyToken=7cec85d7bea7798e"
    },
    {
      "$type": "Forguncy.SaveLoad.BindingColumnSaveData, ServerDesignerCommon",
      "DatabaseColumnType": "System.Double",
      "MaxLength": -1,
      "Name": "Melting_Point__K_",
      "ColumnType": "System.Double, System.Private.CoreLib, Version=6.0.0.0, Culture=neutral, PublicKeyToken=7cec85d7bea7798e"
    },
    {
      "$type": "Forguncy.SaveLoad.BindingColumnSaveData, ServerDesignerCommon",
      "DatabaseColumnType": "System.Double",
      "MaxLength": -1,
      "Name": "Boiling_Point__K_",
      "ColumnType": "System.Double, System.Private.CoreLib, Version=6.0.0.0, Culture=neutral, PublicKeyToken=7cec85d7bea7798e"
    },
    {
      "$type": "Forguncy.SaveLoad.BindingColumnSaveData, ServerDesignerCommon",
      "DatabaseColumnType": "System.Double",
      "MaxLength": -1,
      "Name": "Isotopes",
      "ColumnType": "System.Double, System.Private.CoreLib, Version=6.0.0.0, Culture=neutral, PublicKeyToken=7cec85d7bea7798e"
    },
    {
      "$type": "Forguncy.SaveLoad.BindingColumnSaveData, ServerDesignerCommon",
      "DatabaseColumnType": "System.String",
      "MaxLength": -1,
      "Name": "Discoverer",
      "ColumnType": "System.String, System.Private.CoreLib, Version=6.0.0.0, Culture=neutral, PublicKeyToken=7cec85d7bea7798e"
    },
    {
      "$type": "Forguncy.SaveLoad.BindingColumnSaveData, ServerDesignerCommon",
      "DatabaseColumnType": "System.Double",
      "MaxLength": -1,
      "Name": "Year_of_Discovery",
      "ColumnType": "System.Double, System.Private.CoreLib, Version=6.0.0.0, Culture=neutral, PublicKeyToken=7cec85d7bea7798e"
    },
    {
      "$type": "Forguncy.SaveLoad.BindingColumnSaveData, ServerDesignerCommon",
      "DatabaseColumnType": "System.Double",
      "MaxLength": -1,
      "Name": "Specific_Heat_Capacity",
      "ColumnType": "System.Double, System.Private.CoreLib, Version=6.0.0.0, Culture=neutral, PublicKeyToken=7cec85d7bea7798e"
    },
    {
      "$type": "Forguncy.SaveLoad.BindingColumnSaveData, ServerDesignerCommon",
      "DatabaseColumnType": "System.String",
      "MaxLength": -1,
      "Name": "Electron_Configuration",
      "ColumnType": "System.String, System.Private.CoreLib, Version=6.0.0.0, Culture=neutral, PublicKeyToken=7cec85d7bea7798e"
    },
    {
      "$type": "Forguncy.SaveLoad.BindingColumnSaveData, ServerDesignerCommon",
      "DatabaseColumnType": "System.Double",
      "MaxLength": -1,
      "Name": "Display_Row",
      "ColumnType": "System.Double, System.Private.CoreLib, Version=6.0.0.0, Culture=neutral, PublicKeyToken=7cec85d7bea7798e"
    },
    {
      "$type": "Forguncy.SaveLoad.BindingColumnSaveData, ServerDesignerCommon",
      "DatabaseColumnType": "System.Double",
      "MaxLength": -1,
      "Name": "Display_Column",
      "ColumnType": "System.Double, System.Private.CoreLib, Version=6.0.0.0, Culture=neutral, PublicKeyToken=7cec85d7bea7798e"
    },
    {
      "$type": "Forguncy.SaveLoad.UserExtraBingingColumnSaveData, ServerDesignerCommon",
      "ColumnType": "System.String, System.Private.CoreLib, Version=6.0.0.0, Culture=neutral, PublicKeyToken=7cec85d7bea7798e",
      "Name": "FGC_Creator"
    },
    {
      "$type": "Forguncy.SaveLoad.DateExtraBingingColumnSaveData, ServerDesignerCommon",
      "ColumnType": "System.DateTime, System.Private.CoreLib, Version=6.0.0.0, Culture=neutral, PublicKeyToken=7cec85d7bea7798e",
      "Name": "FGC_CreateDate"
    },
    {
      "$type": "Forguncy.SaveLoad.UserExtraBingingColumnSaveData, ServerDesignerCommon",
      "ColumnType": "System.String, System.Private.CoreLib, Version=6.0.0.0, Culture=neutral, PublicKeyToken=7cec85d7bea7798e",
      "Name": "FGC_LastModifier"
    },
    {
      "$type": "Forguncy.SaveLoad.DateExtraBingingColumnSaveData, ServerDesignerCommon",
      "ColumnType": "System.DateTime, System.Private.CoreLib, Version=6.0.0.0, Culture=neutral, PublicKeyToken=7cec85d7bea7798e",
      "Name": "FGC_LastModifyDate"
    }
  ],
  "PrimaryKey": [
    "ID"
  ],
  "Relations": [],
  "Indexes": []
}